Program Version,EnergyPlus, Version 22.2.0-c249759bad, YMD=2023.11.27 17:05
1,5,Environment Title[],Latitude[deg],Longitude[deg],Time Zone[],Elevation[m]
2,8,Day of Simulation[],Month[],Day of Month[],DST Indicator[1=yes 0=no],Hour[],StartMinute[],EndMinute[],DayType
3,5,Cumulative Day of Simulation[],Month[],Day of Month[],DST Indicator[1=yes 0=no],DayType  ! When Daily Report Variables Requested
4,2,Cumulative Days of Simulation[],Month[]  ! When Monthly Report Variables Requested
5,1,Cumulative Days of Simulation[] ! When Run Period Report Variables Requested
6,1,Calendar Year of Simulation[] ! When Annual Report Variables Requested
7,1,Environment,Site Outdoor Air Drybulb Temperature [C] !Hourly
8,1,Environment,Site Outdoor Air Humidity Ratio [kgWater/kgDryAir] !Hourly
9,1,Environment,Site Outdoor Air Relative Humidity [%] !Hourly
204,1,ZONE_0,Zone Mean Radiant Temperature [C] !Hourly
205,1,ZONE_0,Zone Windows Total Transmitted Solar Radiation Energy [J] !Hourly
206,1,ZONE_0,Zone Mean Air Temperature [C] !Hourly
207,1,ZONE_0,Zone Operative Temperature [C] !Hourly
208,1,ZONE_0,Zone Mean Air Humidity Ratio [kgWater/kgDryAir] !Hourly
209,1,ZONE_0,Zone Infiltration Mass Flow Rate [kg/s] !Hourly
210,1,ZONE_0,Zone Infiltration Air Change Rate [ach] !Hourly
211,1,ZONE_0,Zone Ventilation Mass Flow Rate [kg/s] !Hourly
212,1,ZONE_0,Zone Ventilation Air Change Rate [ach] !Hourly
396,1,ZONE_0,Zone Air Temperature [C] !Hourly
397,1,ZONE_0,Zone Air Humidity Ratio [] !Hourly
398,1,ZONE_0,Zone Air Relative Humidity [%] !Hourly
693,1,PEOPLE ZONE_0,Zone Thermal Comfort ASHRAE 55 Adaptive Model 90% Acceptability Status [] !Hourly
694,1,PEOPLE ZONE_0,Zone Thermal Comfort ASHRAE 55 Adaptive Model Running Average Outdoor Air Temperature [C] !Hourly
695,1,ZONE_0,Zone Thermal Comfort ASHRAE 55 Simple Model Summer or Winter Clothes Not Comfortable Time [hr] !Hourly
696,1,ZONE_0 IDEAL LOADS AIR,Zone Ideal Loads Supply Air Total Heating Energy [J] !Hourly
733,1,ZONE_0 IDEAL LOADS AIR,Zone Ideal Loads Supply Air Total Cooling Energy [J] !Hourly
782,1,ZONE_0 IDEAL LOADS AIR,Zone Ideal Loads Zone Total Heating Energy [J] !Hourly
783,1,ZONE_0 IDEAL LOADS AIR,Zone Ideal Loads Zone Total Cooling Energy [J] !Hourly
784,1,ZONE_0 IDEAL LOADS AIR,Zone Ideal Loads Outdoor Air Total Heating Energy [J] !Hourly
785,1,ZONE_0 IDEAL LOADS AIR,Zone Ideal Loads Outdoor Air Total Cooling Energy [J] !Hourly
786,1,ZONE_0 IDEAL LOADS AIR,Zone Ideal Loads Heat Recovery Total Heating Energy [J] !Hourly
787,1,ZONE_0 IDEAL LOADS AIR,Zone Ideal Loads Heat Recovery Total Cooling Energy [J] !Hourly
815,1,ZONE_0,Zone Mechanical Ventilation Mass Flow Rate [kg/s] !Hourly
End of Data Dictionary
1,CLIMATE STUDIO,  38.73,  -9.15,   0.00,  71.00
2,1, 1, 1, 0, 1, 0.00,60.00,Sunday
7,10.815000000000001
8,0.007142424678576868
9,88.05
204,24.183940538476957
205,0.0
206,22.991108509270013
207,23.587524523873483
208,0.008552260632628234
694,10.988333333333332
695,0.0
693,0.9
209,0.008137214715410537
210,0.10452285382454932
211,0.0
212,0.0
396,22.991108509270013
397,0.008552260632628234
398,48.58261156022414
696,0.0
733,0.0
782,0.0
783,1786999.9410591132
784,0.0
785,0.0
786,0.0
787,0.0
815,0.0308486581158861
2,1, 1, 1, 0, 2, 0.00,60.00,Sunday
7,10.445
8,0.006771014139847047
9,85.65
204,23.91500413249435
205,0.0
206,22.70728681526065
207,23.311145473877502
208,0.008172844788382296
694,10.988333333333332
695,0.0
693,1.0
209,0.00815263548848264
210,0.1045576702399686
211,0.0
212,0.0
396,22.70728681526065
397,0.008172844788382296
398,47.26132152718152
696,0.0
733,0.0
782,0.0
783,1794000.981224473
784,0.0
785,0.0
786,0.0
787,0.0
815,0.0308486581158861
2,1, 1, 1, 0, 3, 0.00,60.00,Sunday
7,10.400000000000002
8,0.0069458531198122175
9,88.1
204,23.665602705752583
205,0.0
206,22.4752365919893
207,23.070419648870946
208,0.007948699719384156
694,10.988333333333332
695,0.0
693,1.0
209,0.008151662551883631
210,0.10442603691216923
211,0.0
212,0.0
396,22.4752365919893
397,0.007948699719384156
398,46.635378239006485
696,0.0
733,0.0
782,0.0
783,1654578.223018784
784,0.0
785,0.0
786,0.0
787,0.0
815,0.0308486581158861
2,1, 1, 1, 0, 4, 0.00,60.00,Sunday
7,10.345
8,0.007078903957687875
9,90.1
204,23.43149169369936
205,0.0
206,22.26067246726139
207,22.84608208048038
208,0.007867339366425355
694,10.988333333333332
695,0.0
693,1.0
209,0.008151519594410798
210,0.10433493300975112
211,0.0
212,0.0
396,22.26067246726139
397,0.007867339366425355
398,46.7710615257733
696,0.0
733,0.0
782,0.0
783,1573297.0522968727
784,0.0
785,0.0
786,0.0
787,0.0
815,0.0308486581158861
2,1, 1, 1, 0, 5, 0.00,60.00,Sunday
7,10.245000000000001
8,0.007232484347691708
9,92.65
204,23.206284287739514
205,0.0
206,22.04953782014502
207,22.627911053942267
208,0.007864948587371577
694,10.988333333333332
695,0.0
693,1.0
209,0.008152405664857278
210,0.1042713006978736
211,0.0
212,0.0
396,22.04953782014502
397,0.007864948587371577
398,47.36278835157085
696,0.0
733,0.0
782,0.0
783,1514987.3659889565
784,0.0
785,0.0
786,0.0
787,0.0
815,0.0308486581158861
2,1, 1, 1, 0, 6, 0.00,60.00,Sunday
7,10.145
8,0.007375966451566333
9,95.1
204,22.98774805672148
205,0.0
206,21.844347108202474
207,22.416047582461974
208,0.007921373980058604
694,10.988333333333332
695,0.0
693,1.0
209,0.008153424135558762
210,0.10422117503845327
211,0.0
212,0.0
396,21.844347108202474
397,0.007921373980058604
398,48.299499945571114
696,0.0
733,0.0
782,0.0
783,1477659.3391430818
784,0.0
785,0.0
786,0.0
787,0.0
815,0.0308486581158861
2,1, 1, 1, 0, 7, 0.00,60.00,Sunday
7,10.044999999999998
8,0.007482098998953207
9,97.1
204,22.896170345902007
205,0.0
206,22.119751925658086
207,22.507961135780043
208,0.007995141769184944
694,10.988333333333332
695,0.0
693,1.0
209,0.00815492803289148
210,0.10434994055849041
211,0.0
212,0.0
396,22.119751925658086
397,0.007995141769184944
398,47.93122035992347
696,0.0
733,0.0
782,0.0
783,1086518.4438496663
784,0.0
785,0.0
786,0.0
787,0.0
815,0.0222905249418191
2,1, 1, 1, 0, 8, 0.00,60.00,Sunday
7,10.109999999999998
8,0.007542581496008895
9,97.45
204,22.908247050196614
205,74025.28662381705
206,22.488457512236884
207,22.69835228121675
208,0.008067907187680794
694,10.988333333333332
695,0.0
693,1.0
209,0.008152273662616458
210,0.10445828983948591
211,0.0
212,0.0
396,22.488457512236884
397,0.008067907187680794
398,47.28870116784275
696,0.0
733,0.0
782,0.0
783,746469.0113445384
784,0.0
785,0.0
786,0.0
787,0.0
815,0.014926592543196986
2,1, 1, 1, 0, 9, 0.00,60.00,Sunday
7,10.474999999999998
8,0.0076066169855849575
9,95.9
204,23.20682409845002
205,1183669.256810321
206,22.841250678313333
207,23.02403738838168
208,0.008116637832726153
694,10.988333333333332
695,0.0
693,1.0
209,0.008140956122400279
210,0.10444581425937283
211,0.0
212,0.0
396,22.841250678313333
397,0.008116637832726153
398,46.563528198767266
696,0.0
733,0.0
782,0.0
783,436442.54540354793
784,0.0
785,0.0
786,0.0
787,0.0
815,0.00875686092001977
2,1, 1, 1, 0,10, 0.00,60.00,Sunday
7,11.195
8,0.007769736196007612
9,93.35
204,23.678346048075678
205,2340070.44134875
206,23.30061243942794
207,23.48947924375181
208,0.008169115639171994
694,10.988333333333332
695,0.0
693,0.8
209,0.008118243777521753
210,0.1043247093824338
211,0.0
212,0.0
396,23.30061243942794
397,0.008169115639171994
398,45.57741173149487
696,0.0
733,0.0
782,0.0
783,418461.6925880006
784,0.0
785,0.0
786,0.0
787,0.0
815,0.00875686092001977
2,1, 1, 1, 0,11, 0.00,60.00,Sunday
7,12.15
8,0.007913504983094323
9,89.25
204,24.767009623174925
205,5023550.312839794
206,24.379525918532895
207,24.57326777085391
208,0.008254380786045328
694,10.988333333333332
695,0.0
693,0.0
209,0.008089223114109385
210,0.104344146584142
211,0.0
212,0.0
396,24.379525918532895
397,0.008254380786045328
398,43.1612328458957
696,0.0
733,0.0
782,0.0
783,415605.8605622023
784,0.0
785,0.0
786,0.0
787,0.0
815,0.00875686092001977
2,1, 1, 1, 0,12, 0.00,60.00,Sunday
7,13.260000000000002
8,0.008089446335483716
9,84.8
204,25.394039688530363
205,3961746.573286357
206,25.129255648860205
207,25.26164766869529
208,0.008394556791513432
694,10.988333333333332
695,0.0
693,0.0
209,0.008055626812435117
210,0.10419586899872327
211,0.0
212,0.0
396,25.129255648860205
397,0.008394556791513432
398,41.95290920566377
696,0.0
733,0.0
782,0.0
783,687443.489176936
784,0.0
785,0.0
786,0.0
787,0.0
815,0.014926592543196986
2,1, 1, 1, 0,13, 0.00,60.00,Sunday
7,14.294999999999998
8,0.008246240801746359
9,80.8
204,25.922410904894264
205,3962471.6074843346
206,25.4768562073624
207,25.699633556128333
208,0.00861221184164608
694,10.988333333333332
695,0.0
693,0.0
209,0.008024617615197792
210,0.10395163609979607
211,0.0
212,0.0
396,25.4768562073624
397,0.00861221184164608
398,42.14501484510741
696,0.0
733,0.0
782,0.0
783,982798.7627235102
784,0.0
785,0.0
786,0.0
787,0.0
815,0.0222905249418191
2,1, 1, 1, 0,14, 0.00,60.00,Sunday
7,15.030000000000005
8,0.008338655086952822
9,77.9
204,26.214114369189787
205,3138479.2425520793
206,25.84067962143539
207,26.027396995312593
208,0.008804142360981357
694,10.988333333333332
695,0.0
693,0.0
209,0.008002973551886188
210,0.10382917487598804
211,0.0
212,0.0
396,25.84067962143539
397,0.008804142360981357
398,42.15223824608142
696,0.0
733,0.0
782,0.0
783,652719.9973426928
784,0.0
785,0.0
786,0.0
787,0.0
815,0.014926592543196986
2,1, 1, 1, 0,15, 0.00,60.00,Sunday
7,15.355
8,0.008356695281314252
9,76.45
204,26.354119189568706
205,2383415.5328045
206,26.151720426433116
207,26.25291980800091
208,0.00892230098703766
694,10.988333333333332
695,0.0
693,0.0
209,0.00799372628536188
210,0.1038365572969242
211,0.0
212,0.0
396,26.151720426433116
397,0.00892230098703766
398,41.93165782773717
696,0.0
733,0.0
782,0.0
783,391180.03804539837
784,0.0
785,0.0
786,0.0
787,0.0
815,0.00875686092001977
2,1, 1, 1, 0,16, 0.00,60.00,Sunday
7,15.180000000000001
8,0.008332963814896111
9,77.1
204,26.390539972099333
205,1766682.1960564207
206,26.222182276185595
207,26.306361124142462
208,0.008990134341734377
694,10.988333333333332
695,0.0
693,0.0
209,0.007998880431842974
210,0.10393914514258074
211,0.0
212,0.0
396,26.222182276185595
397,0.008990134341734377
398,42.070411509807464
696,0.0
733,0.0
782,0.0
783,407534.5593270704
784,0.0
785,0.0
786,0.0
787,0.0
815,0.00875686092001977
2,1, 1, 1, 0,17, 0.00,60.00,Sunday
7,14.615
8,0.008299983309803298
9,79.65
204,26.4168670243539
205,1403916.8399954566
206,26.185549671086626
207,26.301208347720262
208,0.00906080259001694
694,10.988333333333332
695,0.0
693,0.0
209,0.008015007861017784
210,0.10414762119673256
211,0.0
212,0.0
396,26.185549671086626
397,0.00906080259001694
398,42.48846336563671
696,0.0
733,0.0
782,0.0
783,738158.6678862853
784,0.0
785,0.0
786,0.0
787,0.0
815,0.014926592543196986
2,1, 1, 1, 0,18, 0.00,60.00,Sunday
7,13.915000000000001
8,0.008229929581699946
9,82.65
204,26.09724544411864
205,125888.93299521875
206,25.70163479741848
207,25.89944012076856
208,0.009120993950842187
694,10.988333333333332
695,0.0
693,0.0
209,0.00803544562694261
210,0.10425429779429048
211,0.0
212,0.0
396,25.70163479741848
397,0.009120993950842187
398,44.012351790934474
696,0.0
733,0.0
782,0.0
783,1151495.6012017906
784,0.0
785,0.0
786,0.0
787,0.0
815,0.0222905249418191
2,1, 1, 1, 0,19, 0.00,60.00,Sunday
7,13.270000000000001
8,0.008124313304145534
9,85.1
204,25.82261700728655
205,0.0
206,25.31219633859765
207,25.567406672942095
208,0.009130224829149132
694,10.988333333333332
695,0.0
693,0.0
209,0.008054890137888234
210,0.10437194568086602
211,0.0
212,0.0
396,25.31219633859765
397,0.009130224829149132
398,45.08398068592803
696,0.0
733,0.0
782,0.0
783,1193895.0310643674
784,0.0
785,0.0
786,0.0
787,0.0
815,0.0222905249418191
2,1, 1, 1, 0,20, 0.00,60.00,Sunday
7,12.725
8,0.008022658481377273
9,87.1
204,25.622900201337433
205,0.0
206,25.0707242471636
207,25.34681222425052
208,0.009092146772033368
694,10.988333333333332
695,0.0
693,0.0
209,0.008071547521387269
210,0.1044968686787695
211,0.0
212,0.0
396,25.0707242471636
397,0.009092146772033368
398,45.54836091030654
696,0.0
733,0.0
782,0.0
783,1231728.8342363504
784,0.0
785,0.0
786,0.0
787,0.0
815,0.0222905249418191
2,1, 1, 1, 0,21, 0.00,60.00,Sunday
7,12.28
8,0.007969800273422114
9,89.1
204,25.431731300334622
205,0.0
206,24.753737868038183
207,25.092734584186406
208,0.00903515114723367
694,10.988333333333332
695,0.0
693,0.0
209,0.008084809108214597
210,0.10454785856578068
211,0.0
212,0.0
396,24.753737868038183
397,0.00903515114723367
398,46.13127336261577
696,0.0
733,0.0
782,0.0
783,1242399.1024850374
784,0.0
785,0.0
786,0.0
787,0.0
815,0.0222905249418191
2,1, 1, 1, 0,22, 0.00,60.00,Sunday
7,11.879999999999999
8,0.007887954041481826
9,90.55
204,25.137467044237464
205,0.0
206,24.112957271987703
207,24.62521215811259
208,0.008953558858292915
694,10.988333333333332
695,0.0
693,0.0
209,0.008097207336993918
210,0.10446943577742954
211,0.0
212,0.0
396,24.112957271987703
397,0.008953558858292915
398,47.51016764833143
696,0.0
733,0.0
782,0.0
783,1697785.7199267983
784,0.0
785,0.0
786,0.0
787,0.0
815,0.0308486581158861
2,1, 1, 1, 0,23, 0.00,60.00,Sunday
7,11.535
8,0.007794065423812687
9,91.54999999999998
204,24.81845752263453
205,0.0
206,23.714706346284643
207,24.266581934459587
208,0.008837599218363128
694,10.988333333333332
695,0.0
693,0.0
209,0.008108228100712026
210,0.10445229145892113
211,0.0
212,0.0
396,23.714706346284643
397,0.008837599218363128
398,48.03788578441723
696,0.0
733,0.0
782,0.0
783,1680402.8942436432
784,0.0
785,0.0
786,0.0
787,0.0
815,0.0308486581158861
2,1, 1, 1, 0,24, 0.00,60.00,Sunday
7,11.290000000000001
8,0.007751805877436931
9,92.55
204,24.525171535382672
205,0.0
206,23.351623845107344
207,23.938397690245004
208,0.008731538095887278
694,10.988333333333332
695,0.0
693,0.0
209,0.008115756238968107
210,0.10440384803657562
211,0.0
212,0.0
396,23.351623845107344
397,0.008731538095887278
398,48.52013513986466
696,0.0
733,0.0
782,0.0
783,1649079.447429272
784,0.0
785,0.0
786,0.0
787,0.0
815,0.0308486581158861
2,2, 1, 2, 0, 1, 0.00,60.00,Monday
7,11.09
8,0.007686075564780391
9,93.0
204,24.246814906422053
205,0.0
206,23.06498658924028
207,23.655900747831165
208,0.00864066170925155
694,10.98625
695,0.0
693,0.7
209,0.008122314673724386
210,0.10437216557949325
211,0.0
212,0.0
396,23.06498658924028
397,0.00864066170925155
398,48.86098528564849
696,0.0
733,0.0
782,0.0
783,1630560.7223628405
784,0.0
785,0.0
786,0.0
787,0.0
815,0.0308486581158861
2,2, 1, 2, 0, 2, 0.00,60.00,Monday
7,10.889999999999999
8,0.007583330133349382
9,93.0
204,23.990032561710294
205,0.0
206,22.814342664529597
207,23.40218761311995
208,0.008541786271188973
694,10.98625
695,0.0
693,1.0
209,0.008129360376828446
210,0.1043579469733662
211,0.0
212,0.0
396,22.814342664529597
397,0.008541786271188973
398,49.04820925288051
696,0.0
733,0.0
782,0.0
783,1625734.6107817995
784,0.0
785,0.0
786,0.0
787,0.0
815,0.0308486581158861
2,2, 1, 2, 0, 3, 0.00,60.00,Monday
7,10.69
8,0.007481773376229278
9,93.0
204,23.746885276893373
205,0.0
206,22.57711851820637
207,23.16200189754987
208,0.008435062231443167
694,10.98625
695,0.0
693,1.0
209,0.008136445559827028
210,0.10434694635552152
211,0.0
212,0.0
396,22.57711851820637
397,0.008435062231443167
398,49.14608687907317
696,0.0
733,0.0
782,0.0
783,1619801.1853730166
784,0.0
785,0.0
786,0.0
787,0.0
815,0.0308486581158861
2,2, 1, 2, 0, 4, 0.00,60.00,Monday
7,10.49
8,0.007337364227709181
9,92.45
204,23.513317916185308
205,0.0
206,22.349029238222634
207,22.931173577203975
208,0.008317644450753277
694,10.98625
695,0.0
693,1.0
209,0.008144087686694765
210,0.1043444913480586
211,0.0
212,0.0
396,22.349029238222634
397,0.008317644450753277
398,49.14770807499538
696,0.0
733,0.0
782,0.0
783,1624314.2622744706
784,0.0
785,0.0
786,0.0
787,0.0
815,0.0308486581158861
2,2, 1, 2, 0, 5, 0.00,60.00,Monday
7,10.345
8,0.007229932291597635
9,92.0
204,23.287100085790424
205,0.0
206,22.13128127705007
207,22.709190681420246
208,0.008184793249733932
694,10.98625
695,0.0
693,1.0
209,0.008149644037287546
210,0.10431675162741098
211,0.0
212,0.0
396,22.13128127705007
397,0.008184793249733932
398,49.01851073912923
696,0.0
733,0.0
782,0.0
783,1608382.0420256364
784,0.0
785,0.0
786,0.0
787,0.0
815,0.0308486581158861
2,2, 1, 2, 0, 6, 0.00,60.00,Monday
7,10.190000000000001
8,0.007154576121204609
9,92.0
204,23.06826374243335
205,0.0
206,21.92180686456521
207,22.495035303499282
208,0.008069055896028174
694,10.98625
695,0.0
693,1.0
209,0.00815507931426575
210,0.10429311014714951
211,0.0
212,0.0
396,21.92180686456521
397,0.008069055896028174
398,48.95573408189492
696,0.0
733,0.0
782,0.0
783,1590181.9004480832
784,0.0
785,0.0
786,0.0
787,0.0
815,0.0308486581158861
2,2, 1, 2, 0, 7, 0.00,60.00,Monday
7,9.990000000000002
8,0.0070583337183028365
9,92.0
204,22.975253086355888
205,0.0
206,22.188489598336474
207,22.581871342346176
208,0.007974871011229751
694,10.98625
695,0.0
693,1.0
209,0.008162088439376786
210,0.10446148151107901
211,0.0
212,0.0
396,22.188489598336474
397,0.007974871011229751
398,47.61335790861108
696,0.0
733,0.0
782,0.0
783,1181447.8741726521
784,0.0
785,0.0
786,0.0
787,0.0
815,0.0222905249418191
2,2, 1, 2, 0, 8, 0.00,60.00,Monday
7,9.900000000000002
8,0.006972946733867021
9,91.44999999999999
204,22.974633917190594
205,0.0
206,22.54502119386386
207,22.75982755552723
208,0.00790792465833257
694,10.98625
695,0.0
693,1.0
209,0.008165791755609796
210,0.10462391501299093
211,0.0
212,0.0
396,22.54502119386386
397,0.00790792465833257
398,46.205118357629075
696,0.0
733,0.0
782,0.0
783,818165.2783919523
784,0.0
785,0.0
786,0.0
787,0.0
815,0.014926592543196986
2,2, 1, 2, 0, 9, 0.00,60.00,Monday
7,10.065000000000001
8,0.006930346496771894
9,89.9
204,23.156919390952066
205,743226.5821021093
206,22.800261132865234
207,22.978590261908654
208,0.007852643463896936
694,10.98625
695,0.0
693,1.0
209,0.008161587870474154
210,0.10465112333699962
211,0.0
212,0.0
396,22.800261132865234
397,0.007852643463896936
398,45.18046603603671
696,0.0
733,0.0
782,0.0
783,482042.7972902832
784,0.0
785,0.0
786,0.0
787,0.0
815,0.00875686092001977
2,2, 1, 2, 0,10, 0.00,60.00,Monday
7,10.419999999999998
8,0.006850884751655651
9,86.79999999999998
204,23.50430274262031
205,1674718.578643497
206,23.125729044572417
207,23.315015893596364
208,0.007802749585417626
694,10.98625
695,0.0
693,1.0
209,0.008152400768752817
210,0.1046399840398029
211,0.0
212,0.0
396,23.125729044572417
397,0.007802749585417626
398,44.02206942071352
696,0.0
733,0.0
782,0.0
783,482993.4574163266
784,0.0
785,0.0
786,0.0
787,0.0
815,0.00875686092001977
2,2, 1, 2, 0,11, 0.00,60.00,Monday
7,10.875
8,0.0067350552297084625
9,82.8
204,23.949617853451972
205,2307030.5118704387
206,23.585337235572357
207,23.767477544512165
208,0.007745949305342305
694,10.98625
695,0.0
693,0.4
209,0.00814084097431492
210,0.10464426005001679
211,0.0
212,0.0
396,23.585337235572357
397,0.007745949305342305
398,42.50987351554897
696,0.0
733,0.0
782,0.0
783,487749.851066304
784,0.0
785,0.0
786,0.0
787,0.0
815,0.00875686092001977
2,2, 1, 2, 0,12, 0.00,60.00,Monday
7,11.375
8,0.006577904067382409
9,78.25
204,24.337884949595782
205,2488776.623265207
206,23.950194500215865
207,24.144039724905824
208,0.007679622913073346
694,10.98625
695,0.0
693,0.0
209,0.008128566429892917
210,0.10460394196051644
211,0.0
212,0.0
396,23.950194500215865
397,0.007679622913073346
398,41.23438017812296
696,0.0
733,0.0
782,0.0
783,837064.4587045927
784,0.0
785,0.0
786,0.0
787,0.0
815,0.014926592543196986
2,2, 1, 2, 0,13, 0.00,60.00,Monday
7,11.874999999999998
8,0.006459396732366431
9,74.35
204,24.87061958326162
205,3309263.6413773857
206,24.277793231321862
207,24.57420640729174
208,0.007585870547858617
694,10.98625
695,0.0
693,0.0
209,0.008115837241588424
210,0.10453972518832806
211,0.0
212,0.0
396,24.277793231321862
397,0.007585870547858617
398,39.94417580500235
696,0.0
733,0.0
782,0.0
783,1241743.3459036509
784,0.0
785,0.0
786,0.0
787,0.0
815,0.0222905249418191
2,2, 1, 2, 0,14, 0.00,60.00,Monday
7,12.265
8,0.006359248726089324
9,71.35
204,25.107916192006606
205,2497637.804385722
206,24.604257062246166
207,24.856086627126388
208,0.007502098900713105
694,10.98625
695,0.0
693,0.0
209,0.008106037799058965
210,0.10451420968714634
211,0.0
212,0.0
396,24.604257062246166
397,0.007502098900713105
398,38.74246866058827
696,0.0
733,0.0
782,0.0
783,830273.2734642443
784,0.0
785,0.0
786,0.0
787,0.0
815,0.014926592543196986
2,2, 1, 2, 0,15, 0.00,60.00,Monday
7,12.400000000000002
8,0.006294256610547109
9,70.0
204,25.17141803212757
205,1727105.6907296912
206,24.860784683306232
207,25.016101357716902
208,0.0074282492426305784
694,10.98625
695,0.0
693,0.0
209,0.008103042972200738
210,0.10455334280840078
211,0.0
212,0.0
396,24.860784683306232
397,0.0074282492426305784
398,37.78213641431029
696,0.0
733,0.0
782,0.0
783,490218.5087885751
784,0.0
785,0.0
786,0.0
787,0.0
815,0.00875686092001977
2,2, 1, 2, 0,16, 0.00,60.00,Monday
7,12.290000000000001
8,0.006297966625673436
9,70.55
204,25.031646274942013
205,782088.0147711883
206,24.80053566601461
207,24.916090970478308
208,0.0073688532661667
694,10.98625
695,0.0
693,0.0
209,0.008106118133297367
210,0.1045620045982083
211,0.0
212,0.0
396,24.80053566601461
397,0.0073688532661667
398,37.61799058352539
696,0.0
733,0.0
782,0.0
783,487860.6432638348
784,0.0
785,0.0
786,0.0
787,0.0
815,0.00875686092001977
2,2, 1, 2, 0,17, 0.00,60.00,Monday
7,12.035
8,0.006377959566307434
9,72.65
204,24.973449773558606
205,762486.532640116
206,24.661184817565186
207,24.817317295561896
208,0.007330851978732724
694,10.98625
695,0.0
693,0.0
209,0.008112333777653226
210,0.10458692551658093
211,0.0
212,0.0
396,24.661184817565186
397,0.007330851978732724
398,37.73917305422149
696,0.0
733,0.0
782,0.0
783,821174.6994970221
784,0.0
785,0.0
786,0.0
787,0.0
815,0.014926592543196986
2,2, 1, 2, 0,18, 0.00,60.00,Monday
7,11.735
8,0.006512529508006659
9,75.65
204,24.74199571460511
205,70122.77043696099
206,24.260766238188957
207,24.50138097639703
208,0.007334579744070374
694,10.98625
695,0.0
693,0.0
209,0.008119137822864775
210,0.10453451661178012
211,0.0
212,0.0
396,24.260766238188957
397,0.007334579744070374
398,38.67584383206118
696,0.0
733,0.0
782,0.0
783,1193918.8615442219
784,0.0
785,0.0
786,0.0
787,0.0
815,0.0222905249418191
2,2, 1, 2, 0,19, 0.00,60.00,Monday
7,11.434999999999999
8,0.006639081819838161
9,78.65
204,24.527695251972983
205,0.0
206,23.973305654147577
207,24.250500453060276
208,0.007369724396994196
694,10.98625
695,0.0
693,0.0
209,0.008126060600075952
210,0.10452836862179382
211,0.0
212,0.0
396,23.973305654147577
397,0.007369724396994196
398,39.533926411792415
696,0.0
733,0.0
782,0.0
783,1173395.4110120255
784,0.0
785,0.0
786,0.0
787,0.0
815,0.0222905249418191
2,2, 1, 2, 0,20, 0.00,60.00,Monday
7,11.135000000000002
8,0.006711962147456613
9,81.1
204,24.360952237079324
205,0.0
206,23.78945331004814
207,24.07520277356373
208,0.007421999743589705
694,10.98625
695,0.0
693,0.0
209,0.00813369304157154
210,0.10457049252400805
211,0.0
212,0.0
396,23.78945331004814
397,0.007421999743589705
398,40.25345544367811
696,0.0
733,0.0
782,0.0
783,1178426.0387549668
784,0.0
785,0.0
786,0.0
787,0.0
815,0.0222905249418191
2,2, 1, 2, 0,21, 0.00,60.00,Monday
7,10.889999999999999
8,0.006721856594832781
9,82.55
204,24.192718677022967
205,0.0
206,23.513268078906158
207,23.85299337796456
208,0.007463620394410481
694,10.98625
695,0.0
693,0.0
209,0.008140580384058998
210,0.1045686085641216
211,0.0
212,0.0
396,23.513268078906158
397,0.007463620394410481
398,41.15580481533849
696,0.0
733,0.0
782,0.0
783,1183834.2971165176
784,0.0
785,0.0
786,0.0
787,0.0
815,0.0222905249418191
2,2, 1, 2, 0,22, 0.00,60.00,Monday
7,10.745000000000001
8,0.006782920247860888
9,84.1
204,23.918844812484117
205,0.0
206,22.914548650910866
207,23.416696731697492
208,0.007489034959725376
694,10.98625
695,0.0
693,1.0
209,0.008143946980775117
210,0.10440494589378826
211,0.0
212,0.0
396,22.914548650910866
397,0.007489034959725376
398,42.81822162061139
696,0.0
733,0.0
782,0.0
783,1581703.2952099429
784,0.0
785,0.0
786,0.0
787,0.0
815,0.0308486581158861
2,2, 1, 2, 0,23, 0.00,60.00,Monday
7,10.59
8,0.006829498265723209
9,85.55
204,23.621161084717805
205,0.0
206,22.555551741518048
207,23.088356413117925
208,0.007517895725255079
694,10.98625
695,0.0
693,1.0
209,0.00814779256569199
210,0.10433236986437126
211,0.0
212,0.0
396,22.555551741518048
397,0.007517895725255079
398,43.9247901535353
696,0.0
733,0.0
782,0.0
783,1548946.7459392063
784,0.0
785,0.0
786,0.0
787,0.0
815,0.0308486581158861
2,2, 1, 2, 0,24, 0.00,60.00,Monday
7,10.445
8,0.006842961760911334
9,86.55000000000001
204,23.347218781851915
205,0.0
206,22.218953227265068
207,22.78308600455849
208,0.007532475544229203
694,10.98625
695,0.0
693,1.0
209,0.00815178371009696
210,0.1042670754970239
211,0.0
212,0.0
396,22.218953227265068
397,0.007532475544229203
398,44.919310929560936
696,0.0
733,0.0
782,0.0
783,1528813.287264142
784,0.0
785,0.0
786,0.0
787,0.0
815,0.0308486581158861
2,3, 1, 3, 0, 1, 0.00,60.00,Tuesday
7,10.400000000000002
8,0.006901937790814156
9,87.55
204,23.08825649666939
205,0.0
206,21.961584985630132
207,22.524920741149757
208,0.007548012894532806
694,10.99072222222222
695,0.0
693,1.0
209,0.008152312779783726
210,0.10418555903646262
211,0.0
212,0.0
396,21.961584985630132
397,0.007548012894532806
398,45.7221755222683
696,0.0
733,0.0
782,0.0
783,1490960.4744489067
784,0.0
785,0.0
786,0.0
787,0.0
815,0.0308486581158861
2,3, 1, 3, 0, 2, 0.00,60.00,Tuesday
7,10.400000000000002
8,0.007025513570838746
9,89.1
204,22.85421521219967
205,0.0
206,21.748486120891876
207,22.301350666545765
208,0.0075872208222784706
694,10.99072222222222
695,0.0
693,1.0
209,0.008150711191292247
210,0.10409635682183234
211,0.0
212,0.0
396,21.748486120891876
397,0.0075872208222784706
398,46.55888848512991
696,0.0
733,0.0
782,0.0
783,1442122.885943016
784,0.0
785,0.0
786,0.0
787,0.0
815,0.0308486581158861
2,3, 1, 3, 0, 3, 0.00,60.00,Tuesday
7,10.400000000000002
8,0.007141155850387916
9,90.55
204,22.636651264343165
205,0.0
206,21.551783535960926
207,22.094217400152043
208,0.007657762601900033
694,10.99072222222222
695,0.0
693,1.0
209,0.008149212931090529
210,0.10401945354206912
211,0.0
212,0.0
396,21.551783535960926
397,0.007657762601900033
398,47.555216420686556
696,0.0
733,0.0
782,0.0
783,1406728.8817367416
784,0.0
785,0.0
786,0.0
787,0.0
815,0.0308486581158861
2,3, 1, 3, 0, 4, 0.00,60.00,Tuesday
7,10.345
8,0.007194115451542424
9,91.54999999999998
204,22.43033688210693
205,0.0
206,21.36227042024893
207,21.896303651177927
208,0.00772679315871614
694,10.99072222222222
695,0.0
693,1.0
209,0.008150107937563109
210,0.10397537509737112
211,0.0
212,0.0
396,21.36227042024893
397,0.00772679315871614
398,48.53874286233432
696,0.0
733,0.0
782,0.0
783,1396518.0126161915
784,0.0
785,0.0
786,0.0
787,0.0
815,0.0308486581158861
2,3, 1, 3, 0, 5, 0.00,60.00,Tuesday
7,10.299999999999999
8,0.007295155417516927
9,93.1
204,22.231835197680372
205,0.0
206,21.178208665900446
207,21.705021931790412
208,0.007789222770420388
694,10.99072222222222
695,0.0
693,1.0
209,0.008150092982570124
210,0.10392050692621065
211,0.0
212,0.0
396,21.178208665900446
397,0.007789222770420388
398,49.48159210379905
696,0.0
733,0.0
782,0.0
783,1369669.0806277047
784,0.0
785,0.0
786,0.0
787,0.0
815,0.0308486581158861
2,3, 1, 3, 0, 6, 0.00,60.00,Tuesday
7,10.299999999999999
8,0.007410126029412656
9,94.55
204,22.041552399139384
205,0.0
206,21.006724990002247
207,21.524138694570812
208,0.007872003317978474
694,10.99072222222222
695,0.0
693,1.0
209,0.008148604174182315
210,0.10385463634877105
211,0.0
212,0.0
396,21.006724990002247
397,0.007872003317978474
398,50.53035533473535
696,0.0
733,0.0
782,0.0
783,1340968.474726602
784,0.0
785,0.0
786,0.0
787,0.0
815,0.0308486581158861
2,3, 1, 3, 0, 7, 0.00,60.00,Tuesday
7,10.299999999999999
8,0.007533077234076932
9,96.1
204,21.97566546169842
205,0.0
206,21.302205561204214
207,21.638935511451322
208,0.007956780578956405
694,10.99072222222222
695,0.0
693,1.0
209,0.008147012689353948
210,0.10395264314125097
211,0.0
212,0.0
396,21.302205561204214
397,0.007956780578956405
398,50.14937074899864
696,0.0
733,0.0
782,0.0
783,980242.1127928393
784,0.0
785,0.0
786,0.0
787,0.0
815,0.0222905249418191
2,3, 1, 3, 0, 8, 0.00,60.00,Tuesday
7,10.299999999999999
8,0.007560844024027723
9,96.45
204,21.995462613311652
205,0.0
206,21.676073577969213
207,21.835768095640436
208,0.00803892187405877
694,10.99072222222222
695,0.0
693,1.0
209,0.008146653321812058
210,0.10409361650668965
211,0.0
212,0.0
396,21.676073577969213
397,0.00803892187405877
398,49.51372289299822
696,0.0
733,0.0
782,0.0
783,685251.8782529716
784,0.0
785,0.0
786,0.0
787,0.0
815,0.014926592543196986
2,3, 1, 3, 0, 9, 0.00,60.00,Tuesday
7,10.299999999999999
8,0.007437886921386125
9,94.9
204,22.47372085587526
205,1852612.0895393789
206,22.118317492745387
207,22.296019174310327
208,0.008069582663340989
694,10.99072222222222
695,0.0
693,1.0
209,0.008148244806640427
210,0.10427520119146712
211,0.0
212,0.0
396,22.118317492745387
397,0.008069582663340989
398,48.379066165267844
696,0.0
733,0.0
782,0.0
783,428232.8465886896
784,0.0
785,0.0
786,0.0
787,0.0
815,0.00875686092001977
2,3, 1, 3, 0,10, 0.00,60.00,Tuesday
7,10.299999999999999
8,0.007192121688577566
9,91.79999999999998
204,22.82962530526725
205,1869973.8033004655
206,22.52278863625388
207,22.676206970760564
208,0.008052817789216227
694,10.99072222222222
695,0.0
693,1.0
209,0.008151427776297116
210,0.10445605059817094
211,0.0
212,0.0
396,22.52278863625388
397,0.008052817789216227
398,47.10430963497041
696,0.0
733,0.0
782,0.0
783,460607.03884719056
784,0.0
785,0.0
786,0.0
787,0.0
815,0.00875686092001977
2,3, 1, 3, 0,11, 0.00,60.00,Tuesday
7,10.299999999999999
8,0.006875275966058365
9,87.8
204,23.17995566679945
205,2170876.880190047
206,22.85142391214277
207,23.015689789471107
208,0.00798585500641134
694,10.99072222222222
695,0.0
693,1.0
209,0.008155534833918567
210,0.10461371905027454
211,0.0
212,0.0
396,22.85142391214277
397,0.00798585500641134
398,45.79586548994304
696,0.0
733,0.0
782,0.0
783,491311.74087049044
784,0.0
785,0.0
786,0.0
787,0.0
815,0.00875686092001977
2,3, 1, 3, 0,12, 0.00,60.00,Tuesday
7,10.355